/*--------------------------------*- C++ -*----------------------------------*\
| =========                 |                                                 |
| \\      /  F ield         | OpenFOAM: The Open Source CFD Toolbox           |
|  \\    /   O peration     | Version:  2.3.0                                 |
|   \\  /    A nd           | Web:      www.OpenFOAM.org                      |
|    \\/     M anipulation  |                                                 |
\*---------------------------------------------------------------------------*/
FoamFile
{
    version     2.0;
    format      ascii;
    class       volScalarField;
    location    "0";
    object      F1;
}
// * * * * * * * * * * * * * * * * * * * * * * * * * * * * * * * * * * * * * //

dimensions      [0 0 0 0 0 0 0];

internalField   nonuniform List<scalar>
20000
(
0.0
0.0
0.0
0.0
0.0
0.0
0.0
0.0
0.0
0.0
0.0
0.0
0.0
0.0
0.0
0.0
0.0
0.0
0.0
0.0
0.901263392936
0.898858123965
0.901183436015
0.901282345949
0.899286760821
0.898233264774
0.899226266349
0.901697817639
0.899616951635
0.900447127783
0.900895759931
0.899937657332
0.900798833835
0.899440718532
0.898178051865
0.901836495874
0.899401924814
0.899529310733
0.900008074735
0.899401748852
0.90128678165
0.899942848183
0.900553250365
0.901751619893
0.901399606865
0.901130924738
0.900894056362
0.901807264892
0.900559103273
0.900248112694
0.89960998513
0.898284198329
0.899682504173
0.899729073088
0.901800534146
0.900949894015
0.900700860523
0.9008476396
0.898572477114
0.899067632041
0.901321026127
0.900637533094
0.901285401425
0.900935640557
0.900181834533
0.900479174686
0.901390759129
0.900514157003
0.899017290456
0.900414243047
0.899740179484
0.89977436901
0.899968333816
0.900637548217
0.901323284537
0.900743149122
0.901519113179
0.900036404846
0.901489494179
0.899602679296
0.901562893563
0.898647230805
0.901219911555
0.898376563964
0.899716980689
0.899897635515
0.900767048821
0.898741659215
0.899764655705
0.898001592345
0.901105577094
0.898764034949
0.898475683025
0.898174974051
0.899100988093
0.898446193017
0.899500097974
0.900561603779
0.899609377308
0.898104636662
0.900411959987
0.900152275071
0.898563836659
0.899680538789
0.900507557962
0.8999975577
0.900268538363
0.89883537485
0.898226589621
0.898141024332
0.900413739096
0.900367805888
0.898003660812
0.899916007493
0.900859731059
0.90030200178
0.901701526353
0.900842633252
0.900943930282
0.899079127258
0.898038315989
0.899892690858
0.899202668761
0.901036687771
0.900487614589
0.900917322345
0.901200600538
0.900808618702
0.899611509962
0.901877198697
0.901667665605
0.901279778085
0.90095239704
0.899482815937
0.901710262187
0.89986756191
0.900612109021
0.899217760984
0.898528580482
0.901625030052
0.901694014491
0.899579347257
0.898861155281
0.899509496594
0.899646095593
0.898359171276
0.900500661433
0.899934447892
0.899707607075
0.898154712275
0.898113168707
0.899668400086
0.898755759399
0.899883399115
0.899122714848
0.900907988477
0.899777948175
0.90170681816
0.899718550695
0.898578833338
0.900070560844
0.900437642128
0.900606571263
0.899622509709
0.898861166388
0.899143229472
0.901897196267
0.899607958912
0.900970230989
0.901886166111
0.900443220485
0.901229537407
0.89900032118
0.899869465176
0.899285053477
0.901844408547
0.901821714907
0.899706446689
0.900168170101
0.899128734209
0.899451475099
0.901911822288
0.898491817294
0.900169268544
0.898325111268
0.899742122844
0.898642499869
0.898979399056
0.898508918199
0.901815790178
0.901061613382
0.899985638794
0.900773972702
0.898992500636
0.898702440181
0.901901390209
0.899466848428
0.900767050503
0.900479268201
0.901070710215
0.0
0.0
0.0
0.0
0.0
0.0
0.0
0.0
0.0
0.0
0.0
0.0
0.0
0.0
0.0
0.0
0.0
0.0
0.0
0.0
0.90098601632
0.899916429573
0.899070944441
0.90177611368
0.898241041388
0.899926703475
0.898441688044
0.900577945088
0.900348647108
0.900601710561
0.90135307387
0.899229696699
0.899794683564
0.901531946334
0.898135254208
0.900710566637
0.900435643631
0.901478579631
0.899204973923
0.90014904447
0.901199976385
0.901924573814
0.901177481615
0.898432686043
0.899190153598
0.901701609938
0.898219330567
0.901552605393
0.900689548835
0.899794484643
0.898975936793
0.899221399663
0.900458478342
0.900008720043
0.901475266639
0.898315170955
0.901232973773
0.901580121251
0.89966450177
0.900068166975
0.90048311004
0.898320288995
0.898049174184
0.901199386613
0.899350208616
0.898175248955
0.898099403062
0.899538449181
0.899613598631
0.901147814344
0.901767452495
0.900199217871
0.900198839418
0.898741224084
0.899304529761
0.899224973895
0.900165908465
0.899167485242
0.900202012692
0.89860431142
0.901377470116
0.899478883236
0.901349060939
0.900176796928
0.901031733966
0.898200145278
0.900294123528
0.901514768095
0.899651174311
0.899010005509
0.89817170155
0.898173960546
0.899437117686
0.89933239806
0.898594504142
0.899462869975
0.898591286624
0.900981678875
0.900783836677
0.901407184091
0.901609246217
0.901493295263
0.898864074509
0.900404211285
0.898422300098
0.898641201928
0.89965746935
0.900369912495
0.898215220259
0.898838416978
0.900952685865
0.900398683746
0.900918817143
0.899276691317
0.899480106507
0.89917147108
0.901133216073
0.898284683541
0.899899064103
0.899964615243
0.901288363674
0.901303089112
0.900666694075
0.901228432434
0.898529264384
0.899076005269
0.900814294313
0.901101721413
0.898090764596
0.900890902597
0.899815562589
0.900654490491
0.900095624156
0.89906646921
0.901319067827
0.899329787383
0.898178610521
0.900476256811
0.898904843566
0.89947688215
0.90010179695
0.900185858827
0.899121969054
0.899882720435
0.900093102184
0.901960871367
0.898563045585
0.899930115284
0.89848911556
0.899605702459
0.898827118542
0.89827920761
0.899405774291
0.901417640633
0.900664189489
0.900514077712
0.901784220897
0.901456804837
0.899869563087
0.900411709857
0.899323600526
0.899223555802
0.898233913764
0.898549967783
0.899552156846
0.900009744583
0.898725768623
0.899485020332
0.901535544777
0.900511894238
0.901409471213
0.898481692154
0.899292915965
0.899914453265
0.901074853208
0.900788856124
0.898269837399
0.899106080986
0.898135376695
0.898608948566
0.901372567991
0.899025918385
0.900312728303
0.901921175101
0.899940482509
0.898011109143
0.901137280512
0.89948701395
0.901811926065
0.900078594135
0.900383256848
0.901376947516
0.899876176827
0.899209957565
0.900431400593
0.899934045344
0.901601489804
0.90106767812
0.900960113743
0.899286945697
0.0
0.0
0.0
0.0
0.0
0.0
0.0
0.0
0.0
0.0
0.0
0.0
0.0
0.0
0.0
0.0
0.0
0.0
0.0
0.0
0.900500052726
0.90066379159
0.901230067206
0.898128720867
0.898779061314
0.900927551544
0.900015773423
0.899110411643
0.900397809258
0.901188833126
0.901610785488
0.898203217541
0.899759484282
0.899843897651
0.899179576254
0.900613197561
0.901122947957
0.901337461741
0.899946456655
0.901940284878
0.900089834637
0.898551515935
0.899387796894
0.90012998059
0.900435377783
0.899843208422
0.899233828029
0.901364541344
0.900416222753
0.900581428771
0.899868271995
0.89842790497
0.901029570422
0.900098956292
0.901172728638
0.901109378183
0.90188755194
0.901006978654
0.901761565381
0.901228258647
0.900058971237
0.900476164816
0.898042633995
0.900785666538
0.899678056578
0.901571624751
0.901965217783
0.900923378944
0.900554142494
0.90121200637
0.898774480102
0.901145698985
0.900302361738
0.90042952258
0.900792233522
0.90174109558
0.900084616465
0.899703420878
0.900165731412
0.901647335596
0.8992259081
0.900903032073
0.898595163945
0.901959381287
0.901025551905
0.900307019077
0.900686298379
0.901004438976
0.900209502621
0.901415569095
0.898718679125
0.898607057472
0.899752232993
0.899733634082
0.900975902274
0.901217316464
0.901457458632
0.901307470796
0.90114914567
0.89892532261
0.901738587323
0.898745452753
0.898355353712
0.900698957545
0.899591402018
0.899773128196
0.901884366796
0.899707558666
0.901352844196
0.898395078709
0.899953334498
0.898115171778
0.899474327908
0.901042073718
0.898692108791
0.900633119399
0.901958946477
0.898606212472
0.900111933629
0.901423902196
0.899839487449
0.898030924806
0.90195606449
0.898734021794
0.899811203004
0.900911659511
0.901065495807
0.900893831334
0.899166168742
0.898703897081
0.899257576722
0.900218125229
0.898872298709
0.901132440096
0.901132113953
0.900570510915
0.89885960837
0.899626218557
0.898633259246
0.89834263191
0.899883792867
0.900115242722
0.901931032268
0.900402184121
0.898870692382
0.899836552064
0.90000574225
0.901535345511
0.898589538061
0.899684933818
0.901163147334
0.901274974924
0.89839496279
0.90092499194
0.900885485574
0.901310737993
0.900539920451
0.900094061161
0.89830796483
0.90025985789
0.900883941583
0.901106846723
0.898612011249
0.900845004203
0.899955776977
0.900165009731
0.899085221711
0.898061088715
0.901086826806
0.901996598095
0.898497274365
0.900056634851
0.90034541012
0.898833787976
0.900202891895
0.901718321063
0.899556242108
0.901847670476
0.89818321197
0.900243622945
0.900032347484
0.899761600333
0.901685058492
0.900235393348
0.900390037769
0.898322366883
0.901059606712
0.900292745571
0.901132337884
0.899100052077
0.901600887302
0.89843333082
0.901706243502
0.901375733244
0.900587204265
0.899740030798
0.89995202529
0.899058949219
0.901440599538
0.901262255531
0.0
0.0
0.0
0.0
0.0
0.0
0.0
0.0
0.0
0.0
0.0
0.0
0.0
0.0
0.0
0.0
0.0
0.0
0.0
0.0
0.899305309442
0.899746909739
0.898603294789
0.901127439453
0.90141322609
0.900057525107
0.901434912122
0.900349826117
0.90014841508
0.898599965294
0.898648862063
0.899937206165
0.898554486047
0.901023797443
0.899380681154
0.900246120263
0.898063662191
0.899962832726
0.898328065017
0.899682538285
0.898581081053
0.898046648243
0.901692056251
0.898664974635
0.898937515093
0.900454556299
0.899182612115
0.900327010999
0.901097508459
0.899505571946
0.899990786546
0.899813179624
0.898542133979
0.901216960818
0.898242069928
0.89882713953
0.900459997104
0.899924578863
0.899630112496
0.898024892675
0.899555798471
0.900400602886
0.899637695666
0.901494956226
0.9014216781
0.898576289023
0.899294956749
0.899499952885
0.899043461907
0.901455822061
0.90099751362
0.901315932984
0.901015569425
0.898062182535
0.901264181981
0.901278542305
0.898875626226
0.898060525551
0.900899877358
0.900032042014
0.89855416439
0.901815709003
0.899334239048
0.898755326604
0.901796244916
0.898177111476
0.898785206615
0.901063708783
0.898845126884
0.90007034057
0.899796334207
0.898991973652
0.899742804882
0.899273544856
0.900842150941
0.89924705466
0.898637409377
0.898035391366
0.898107312001
0.900897208134
0.899066336164
0.899724711497
0.899635320712
0.900869910083
0.898864273511
0.900598242286
0.900169624497
0.900260412906
0.899946200509
0.900736785661
0.90169914907
0.90118810636
0.899925459556
0.900326165023
0.900577484859
0.898002369198
0.899101360629
0.89964188021
0.901870335093
0.899849029867
0.898294146123
0.899697838426
0.90074482356
0.900166789265
0.899224886156
0.900671366787
0.899892720802
0.90076683489
0.90050789041
0.901658342265
0.898165193905
0.901999678746
0.901349803588
0.899199439881
0.898639363879
0.899438880506
0.898780798608
0.898322521549
0.898450764948
0.898165335009
0.90173786288
0.899961514149
0.898336322927
0.90024761393
0.899816436262
0.900301726761
0.898582660704
0.900847433483
0.901285811227
0.901850941665
0.900827495852
0.901776886384
0.899658080994
0.898893141805
0.900419809518
0.901337411383
0.898572057444
0.899993831472
0.901395005702
0.89973704041
0.899732796896
0.898602379381
0.898725243866
0.898453373588
0.900171940597
0.899685918373
0.901839331014
0.901837931659
0.898335591855
0.899748051665
0.901450478164
0.899042803804
0.900932630821
0.898437329775
0.899214116583
0.898178917669
0.898552604556
0.900806865697
0.901874764707
0.898256852536
0.900625895837
0.901687571655
0.898149012884
0.89871778938
0.899523570582
0.900696990825
0.898003679771
0.89908401378
0.898066584999
0.900136431766
0.89997443475
0.901535756998
0.898067161458
0.89980148512
0.900650738644
0.899822408471
0.900347364052
0.898738693274
0.898907542815
0.900823804338
0.0
0.0
0.0
0.0
0.0
0.0
0.0
0.0
0.0
0.0
0.0
0.0
0.0
0.0
0.0
0.0
0.0
0.0
0.0
0.0
0.89847318497
0.900242774861
0.901437626104
0.900622678076
0.89869627009
0.899321830987
0.89801456354
0.900730916759
0.899721120816
0.901356045012
0.899418444334
0.900330544828
0.899007769462
0.899269394131
0.899494276169
0.898551533548
0.898911503076
0.898708959862
0.901600081898
0.899266884074
0.899697941926
0.900577477468
0.898150884485
0.899630082584
0.901488387716
0.898326198451
0.899473283146
0.899950320052
0.901579842467
0.900520828735
0.899818660803
0.900625375916
0.899504396115
0.900044870187
0.899914312952
0.90057772623
0.90034875076
0.899977892933
0.899961746382
0.900141905714
0.90004223354
0.901201310136
0.900139023388
0.901689757615
0.898025274035
0.90152053896
0.899517329348
0.900476032983
0.900531998141
0.900443397015
0.899417600897
0.898913493682
0.898165986209
0.901620012971
0.901870836286
0.898570386039
0.898803017868
0.899945584209
0.899730222352
0.89974923685
0.901127649699
0.898989703684
0.899392942997
0.898102488135
0.899598899635
0.900956766699
0.900110144606
0.901255242572
0.900262716833
0.901402763862
0.900934220438
0.898360323473
0.901224506465
0.899657067441
0.901120299921
0.899941554817
0.899284935696
0.898238649166
0.899316301023
0.898764869605
0.898928059762
0.899575320501
0.898707530274
0.898500848311
0.899947480565
0.901022659402
0.900330202541
0.899623974697
0.901236823041
0.900391378836
0.898860227389
0.900608685162
0.901654817613
0.900049166502
0.898942441769
0.89800133022
0.901876212817
0.899007650075
0.899208944483
0.901742229966
0.899475304396
0.898345039248
0.899526984378
0.898002204746
0.899172209985
0.901848986406
0.899730618868
0.901406630889
0.898914579397
0.900012454699
0.898595540441
0.901761545776
0.901320816722
0.899615568266
0.900799030621
0.899000135421
0.900934194631
0.900760260592
0.900230839497
0.900793204033
0.901987351635
0.900097436928
0.898832457185
0.899154035953
0.90005010859
0.900516085232
0.901989266731
0.901461055336
0.899802387384
0.899709773545
0.899878130188
0.900466310473
0.900092791682
0.898605437335
0.901197810715
0.901030420267
0.900511615724
0.90014789113
0.898229769172
0.90017782859
0.89873179891
0.901183859377
0.900788533013
0.900909725428
0.901785045869
0.899840470313
0.898495645928
0.898611768593
0.901885112057
0.898304308924
0.901250321036
0.89846186703
0.900976741111
0.898424019098
0.899041714761
0.89990696861
0.898343407912
0.901106680867
0.901073143357
0.899930865557
0.901146504949
0.899667435561
0.898715368564
0.898136086337
0.899576043127
0.900913470002
0.89868698712
0.898117661926
0.901982670373
0.899162094609
0.899374260552
0.898800608703
0.90166263527
0.901349541654
0.898107347107
0.900553320746
0.900868055626
0.900836556852
0.90075436591
0.901582084976
0.0
0.0
0.0
0.0
0.0
0.0
0.0
0.0
0.0
0.0
0.0
0.0
0.0
0.0
0.0
0.0
0.0
0.0
0.0
0.0
0.899045945675
0.901158067442
0.901396217998
0.899345493501
0.901907507032
0.899180702717
0.89926137212
0.900332914025
0.899052897922
0.898030150931
0.900821983595
0.901450540479
0.898356755347
0.89919080297
0.898536843948
0.900906116231
0.90069211018
0.900260799136
0.901761280681
0.900573012767
0.898863464967
0.898308814524
0.900609775156
0.899483665892
0.899960168713
0.898389991972
0.901076347679
0.898888697557
0.90127587376
0.899793769653
0.899646050402
0.901112031745
0.900184595006
0.899436441184
0.898719321696
0.899656044107
0.901808462429
0.901730701754
0.901483045204
0.898259440191
0.898008523089
0.899217149508
0.898218137499
0.899698187731
0.898295605157
0.900225381606
0.900241583641
0.900728022008
0.898775329769
0.901360052582
0.901094922738
0.898466150417
0.899326176586
0.899913016419
0.901959955439
0.899946669639
0.901546503928
0.899350328359
0.899223765999
0.898057040889
0.899646029385
0.899497832044
0.901623867253
0.899294850343
0.89827664095
0.90042735657
0.898324267083
0.899709613701
0.900603760679
0.899980202592
0.899153243429
0.900670146937
0.899386478313
0.90016582242
0.899397751319
0.898415940268
0.901220828302
0.898677463852
0.899382702656
0.898233068105
0.899898503934
0.899773229634
0.900573567258
0.901570494355
0.900949316117
0.899494910308
0.900179552123
0.899040513247
0.900212254891
0.898394568853
0.898292020799
0.901010781046
0.900310581254
0.90182864825
0.901047795939
0.898547008149
0.898223801014
0.900889093306
0.899185007249
0.898363790603
0.900954479292
0.899779412856
0.900967224205
0.89947604372
0.901095585905
0.898334228955
0.898986797651
0.900855913344
0.899265325554
0.899551527924
0.900917265222
0.90082637353
0.899080213304
0.899685495706
0.900278995506
0.899555461588
0.898085729267
0.898990029165
0.898283993932
0.899646946693
0.898760560834
0.898656236853
0.898863469291
0.898818396071
0.899432139517
0.901832942494
0.898058498777
0.90184196363
0.899985006843
0.900080862591
0.901353969092
0.89909566456
0.898590324034
0.900588917231
0.899977836111
0.900155830953
0.90028428125
0.90042945811
0.901879208079
0.89991669905
0.898526227334
0.901332712521
0.898977539344
0.901371690726
0.900022367295
0.898046551573
0.900459815593
0.901228049733
0.900322060535
0.899980632317
0.900164273063
0.900977157533
0.900743810005
0.899600129383
0.898639457149
0.89921406657
0.900672762755
0.898374495557
0.898262508696
0.899724204991
0.898129147381
0.900954866101
0.899308701978
0.900006272072
0.89863851861
0.900252321856
0.89995321505
0.900095585009
0.901356209273
0.898004531533
0.901826853824
0.898291170073
0.899223179434
0.900986525515
0.898340589004
0.898255018625
0.899497366207
0.900339091
0.899032645791
0.901011259926
0.0
0.0
0.0
0.0
0.0
0.0
0.0
0.0
0.0
0.0
0.0
0.0
0.0
0.0
0.0
0.0
0.0
0.0
0.0
0.0
0.901250007641
0.900439416644
0.900105837251
0.898123432392
0.89954383772
0.900901872525
0.900592100228
0.900358688638
0.901337958099
0.900888880103
0.89949504769
0.900642332946
0.900084741753
0.899469680886
0.899690588562
0.899050402567
0.901783233396
0.90108530648
0.898795515808
0.898512164781
0.900887362034
0.899180581927
0.900934264273
0.898761286267
0.900578863557
0.8988254484
0.899877840037
0.899074692422
0.900516106001
0.900696625575
0.899197688747
0.90013754077
0.898452769037
0.898051433954
0.899799271977
0.900821115855
0.901187442548
0.89838213027
0.901622854558
0.900695171731
0.900075902371
0.899723173706
0.898787068722
0.899856105844
0.898775562836
0.89968459746
0.899605345509
0.898682933187
0.900079903229
0.89995287251
0.899367099149
0.900493893736
0.900995234732
0.899728636541
0.89900120101
0.901481239137
0.900586813793
0.900187708715
0.899702516741
0.901914686231
0.900615389831
0.899008314628
0.901278278059
0.899491321452
0.900916762556
0.898500985428
0.898469724269
0.901644488534
0.901139609155
0.89975801168
0.898427307975
0.898207603156
0.900976983023
0.901617634305
0.899917184899
0.900512847569
0.900606512217
0.899233555069
0.901034894219
0.899178632361
0.899344601396
0.900727717441
0.900045649082
0.899546010509
0.898241392001
0.898808840471
0.898669876422
0.899643123512
0.900976682574
0.900208069687
0.8980624125
0.901500153556
0.90165567115
0.90186952062
0.900352434647
0.898222955833
0.899002999866
0.89984953366
0.901361705817
0.89841196862
0.901073930733
0.900756000369
0.901407051965
0.901276098608
0.901324779651
0.901275209928
0.900605956472
0.89902177343
0.901674675743
0.90008520793
0.898592708664
0.900975375784
0.899078690038
0.899788826679
0.899558664721
0.898161681215
0.900426304608
0.89839590714
0.901397802491
0.90031454536
0.900332807233
0.901747794553
0.899464758436
0.900334814015
0.901732410919
0.898711776622
0.898584749448
0.901822839914
0.901354005219
0.900798869848
0.898401728418
0.901425107428
0.901118754795
0.90041168272
0.900839759582
0.89827238045
0.90183042229
0.900177079493
0.900300340075
0.900199610112
0.900965806736
0.898565760767
0.900035020633
0.89848584848
0.898748738832
0.900019337947
0.900248557751
0.901776686963
0.898491542282
0.901455933824
0.901638763728
0.899778384896
0.900958954582
0.901351476968
0.900632000106
0.89867439821
0.900821035454
0.901322626257
0.898613989661
0.901181305923
0.900500735473
0.899403507307
0.900958212245
0.899413257621
0.901936154035
0.900611566361
0.90170068186
0.900509352931
0.89942733613
0.900528981477
0.901275165435
0.899671785241
0.901615512543
0.901135591067
0.899815733936
0.900609709836
0.898516589682
0.898246565401
0.900703127447
0.899734697858
0.0
0.0
0.0
0.0
0.0
0.0
0.0
0.0
0.0
0.0
0.0
0.0
0.0
0.0
0.0
0.0
0.0
0.0
0.0
0.0
0.900665661453
0.90047749983
0.899489771312
0.898785515784
0.898497489847
0.898114916831
0.89999901876
0.899933496045
0.901637251007
0.900632994393
0.898845956676
0.899064958623
0.899654536325
0.90029011697
0.900913748296
0.901524870869
0.899741096559
0.899073932399
0.899423388624
0.901269109246
0.899406115128
0.900315950461
0.901067690154
0.901241142785
0.899644132455
0.900845358925
0.900450712526
0.901275425253
0.898977253676
0.901408630739
0.901163897769
0.898560798881
0.899896207484
0.899703071085
0.900422349605
0.898803276949
0.901468381146
0.900665587581
0.898224833286
0.901778941871
0.899716194654
0.900044198565
0.901024700419
0.901222985743
0.901831173977
0.898710705982
0.899320160589
0.900101735914
0.900220788946
0.898927736187
0.901952036001
0.900899416989
0.899286710135
0.898138357215
0.898796652169
0.898651845972
0.898093281165
0.900697288713
0.898303432829
0.90198808879
0.899719744911
0.898263643068
0.899078608156
0.898290326622
0.900312399498
0.899013246955
0.89979109905
0.901011882045
0.901912443158
0.900760436991
0.899760346483
0.899651097514
0.90060611898
0.899623791561
0.900573598643
0.898052029736
0.899339165807
0.899470796466
0.899175155724
0.901429238252
0.898373161341
0.901053192311
0.898856410428
0.89902632893
0.90002011311
0.898215052852
0.898722676884
0.901179525253
0.898282949211
0.900676708684
0.899354920262
0.900306628412
0.898048913493
0.898721457596
0.90042670165
0.901585000812
0.900702570594
0.900851674707
0.901690023869
0.899342777771
0.901137666996
0.90169857694
0.898953131264
0.899719862242
0.898945383586
0.898179375959
0.899441129076
0.898848422198
0.898871099872
0.898588150495
0.89946440649
0.898180901958
0.899597301897
0.90038995394
0.900105787437
0.900228952593
0.90094734874
0.898539171188
0.900016667225
0.900906521585
0.899820750085
0.898808240968
0.898009959955
0.899011778876
0.899822841271
0.89832649485
0.898383730766
0.899936336311
0.898872478008
0.899541947037
0.899429543339
0.898204399952
0.898121118553
0.900094631827
0.900313995887
0.900877644283
0.898723776983
0.901376832977
0.898497659988
0.89807872028
0.90013215325
0.900372732372
0.899266388689
0.898495226697
0.901403762313
0.899771128164
0.901941768418
0.899462443209
0.899932680652
0.899785798898
0.898650101452
0.901405433097
0.899375964292
0.899504063788
0.899748946042
0.901206715835
0.898562414579
0.900091686146
0.9005357951
0.898666416906
0.899305679483
0.90176673567
0.899286236871
0.901233100632
0.89804683134
0.898822317683
0.901419607013
0.900794850541
0.899944137562
0.901700326528
0.900971989203
0.899681049261
0.901225704616
0.898967099197
0.898250695586
0.898874713832
0.899963974556
0.900771151251
0.898105168855
0.900232639481
0.0
0.0
0.0
0.0
0.0
0.0
0.0
0.0
0.0
0.0
0.0
0.0
0.0
0.0
0.0
0.0
0.0
0.0
0.0
0.0
0.901059813811
0.898570864364
0.900685981808
0.901569358586
0.901879564466
0.901941718225
0.901350759741
0.900572558742
0.900087849603
0.899490696921
0.901551729018
0.898870386155
0.900154639922
0.898029445358
0.901435947268
0.901798753091
0.900915654019
0.899998500285
0.899572091376
0.901106574049
0.898056446816
0.901971783818
0.901287746416
0.901319698965
0.900858422233
0.900236370108
0.89966027598
0.898536795759
0.901935943375
0.901140737364
0.898310814907
0.899452645068
0.90005253194
0.899851324571
0.899230867346
0.901403135517
0.90054680906
0.900231869146
0.898853123995
0.898776782224
0.898860995591
0.901966365636
0.900204831129
0.900407481374
0.901307517161
0.901972547503
0.899082423316
0.900602885298
0.900188642758
0.899391531877
0.899247460205
0.901637728396
0.901028615228
0.899927618862
0.901492985342
0.898344389489
0.900000932697
0.900539709008
0.901505998873
0.900487876332
0.899028446917
0.89993004977
0.901000158879
0.898315275013
0.901131613813
0.898368126925
0.901893117608
0.901526811392
0.898956803505
0.900638242584
0.901366144303
0.89813629828
0.899213413525
0.90022851242
0.900290451668
0.901657833777
0.898264951367
0.900203053057
0.900482092181
0.90025456323
0.898880064591
0.900787430309
0.899705051991
0.900833083719
0.899894257554
0.900812476516
0.89879172739
0.898048708942
0.898761939785
0.898172208221
0.901321567217
0.89833419051
0.900653663058
0.901443286374
0.899059276513
0.899360916603
0.900681869876
0.901592322604
0.899871403128
0.900478413122
0.89805006658
0.901091429487
0.90034080147
0.901151676889
0.899589974887
0.901492581838
0.898817353747
0.901721346217
0.898605024702
0.898079442106
0.899762069943
0.901686483939
0.899866812986
0.900386513675
0.900994159026
0.900450131366
0.901143563978
0.899231462283
0.900888312948
0.899354801064
0.901550513545
0.898144766437
0.899011536982
0.8992503957
0.901583276136
0.89908327731
0.900142470932
0.898853901964
0.898326816567
0.900099878435
0.898721625032
0.90008921561
0.899311636358
0.900822605264
0.898330131429
0.90005247872
0.898981636756
0.900935779422
0.900018415467
0.901677309451
0.898072648593
0.900486477331
0.899939515241
0.898763820705
0.89956003882
0.90031180261
0.901089693212
0.900284024375
0.90100434381
0.901872343177
0.899640266353
0.901657880684
0.898778427326
0.900923848202
0.899189767547
0.898036404998
0.899595439956
0.898459078375
0.900899973157
0.90028857388
0.901375848341
0.898394318233
0.900017581291
0.899131589567
0.899347357949
0.899633357968
0.899846261852
0.900573327091
0.899798464244
0.898389966846
0.899784425769
0.899314573095
0.901509726501
0.899194871018
0.901928914648
0.898059607832
0.898679160182
0.898617368869
0.90160008291
0.899644559839
0.0
0.0
0.0
0.0
0.0
0.0
0.0
0.0
0.0
0.0
0.0
0.0
0.0
0.0
0.0
0.0
0.0
0.0
0.0
0.0
0.900463518714
0.900999046645
0.900275646957
0.90119992217
0.900104324832
0.90082931694
0.899769969649
0.900405536674
0.898692787022
0.900488657289
0.899650981242
0.899521030629
0.900808541632
0.899401396853
0.899347473116
0.898470961706
0.901727616881
0.898270651515
0.899202708736
0.901846499897
0.898812946588
0.898552785143
0.900208532372
0.898912187655
0.900401070957
0.900890443786
0.901329792388
0.900520877377
0.900717639462
0.900376308182
0.901906950712
0.900044503394
0.899068888487
0.898712001001
0.898249401706
0.90169506937
0.898813775575
0.899557135335
0.900595139628
0.900823241639
0.899431512119
0.898365405781
0.89870365007
0.898077367286
0.898228153836
0.899647038932
0.898233872456
0.89991911833
0.900078135212
0.901067848561
0.901651589074
0.899957141507
0.899412944089
0.901913627289
0.900029780686
0.898801929436
0.898680594812
0.90144281558
0.899974013012
0.901546290741
0.90061746254
0.899212488368
0.900691383537
0.898737238229
0.898758782558
0.901597527136
0.900922294863
0.899792477357
0.900112585629
0.90089717453
0.901042167822
0.901732076508
0.901142884729
0.901570013159
0.900200478392
0.899110908054
0.899965577887
0.899427685997
0.898767028878
0.898840891911
0.901863438024
0.898017589076
0.901617333644
0.898102283378
0.898101857827
0.900163745143
0.900466983621
0.898178909587
0.900622747944
0.89815108954
0.898526970736
0.901372452161
0.901088167429
0.899062832866
0.899778178212
0.900674082869
0.899236883233
0.901831539609
0.901678313966
0.900409841228
0.901993591757
0.90160374285
0.899306977043
0.8988789546
0.898310426548
0.899427553706
0.899992618788
0.900166915375
0.899047051441
0.899872084961
0.899030333706
0.900767781936
0.898201041774
0.899293007028
0.898629174392
0.901589617146
0.898445135366
0.900914716649
0.899263257337
0.898664635003
0.90016234688
0.901521986624
0.900918992064
0.899436011538
0.899517748963
0.901687019413
0.900782331751
0.901941096267
0.900328673822
0.898660057721
0.899498623949
0.901073857105
0.898822468349
0.901804321614
0.898367426458
0.900429239527
0.900570806179
0.899257730831
0.899519504439
0.901657466464
0.900763865793
0.90089851035
0.898281582736
0.899864449979
0.899177710047
0.900387220458
0.901358582295
0.898276215448
0.900825811539
0.900586888224
0.900388893844
0.901954479963
0.901353101069
0.898868880563
0.901819496721
0.901322258006
0.901180980875
0.900403016774
0.899254169194
0.900570390388
0.899850656946
0.899252549642
0.901799822887
0.901833642832
0.90171612337
0.900330241156
0.899094458906
0.898809424199
0.900415690682
0.898504294779
0.898107587585
0.900903706467
0.899296636247
0.900521704278
0.900974966018
0.901714752544
0.90108378931
0.900422937371
0.90074212667
0.901636451478
0.0
0.0
0.0
0.0
0.0
0.0
0.0
0.0
0.0
0.0
0.0
0.0
0.0
0.0
0.0
0.0
0.0
0.0
0.0
0.0
0.900669827556
0.898679831433
0.898827925357
0.901925069611
0.898111847902
0.901353154866
0.898533107712
0.898984814026
0.900900864104
0.901679585014
0.901360838784
0.901813573397
0.900499085405
0.898608929558
0.9010869201
0.900834709241
0.900512543758
0.900006434848
0.899228496088
0.90096648064
0.901065676842
0.90037508995
0.899457996359
0.898620983619
0.898516934523
0.901787372833
0.899746086449
0.898600002032
0.899917116458
0.901148682502
0.900933701037
0.900574764476
0.900006805766
0.901168245502
0.90176976283
0.901355785868
0.899271050075
0.898546455815
0.900599019449
0.89867662705
0.898230995521
0.899856503518
0.898145889731
0.900455523605
0.900298301107
0.900027998938
0.900360532715
0.899063060532
0.901261167044
0.901783786589
0.900003878402
0.899003167536
0.900227728887
0.900110789988
0.898499187493
0.899815406564
0.900981186842
0.90045035936
0.899733967891
0.899729305603
0.898379702195
0.901791642088
0.899950980578
0.899133004257
0.901198603095
0.901076193763
0.90113650481
0.898756414098
0.899183042854
0.898772038973
0.899650167003
0.899870581883
0.901982719783
0.900402929101
0.901570814726
0.899076273443
0.899275595051
0.89840500695
0.898576184973
0.898897593888
0.901999813316
0.899230559784
0.901841645408
0.901765814645
0.901434282251
0.900046081091
0.898100404798
0.901107146789
0.900296884908
0.900510829678
0.901862868345
0.898362380781
0.899233691928
0.899575560037
0.898935883961
0.898232588758
0.901169138625
0.900332685141